HEADER
"PSFversion" "1.00"
"design" "(\"DAY8\" \"trans_dc_bias4\" \"schematic\" \"\")"
"simulator" "spectre"
"temperature" "27"
"host" ""
"date" "Nov 17 08:26:35 2025"
"title" ""
"analysisList" "()"
END
