HEADER
"PSFversion" "1.00"
"design" "(\"DAY8\" \"trans_bias4_corrected\" \"schematic\" \"\")"
"simulator" "spectre"
"temperature" "27"
"host" ""
"date" "Nov 17 08:03:47 2025"
"title" ""
"analysisList" "()"
END
