HEADER
"PSFversion" "1.00"
"Time Stamp" "Nov 12 10:11:06 2025"
TYPE
"variable" STRUCT(
"value" FLOAT DOUBLE
) PROP( "key" "element" )
VALUE
"IDS" "variable" ( 10e-6 ) PROP( )
"L" "variable" ( 1e-6 ) PROP( )
"NF" "variable" ( 8 ) PROP( )
"VDS" "variable" ( 900e-3 ) PROP( )
"WF" "variable" ( 10e-6 ) PROP( )
"temp" "variable" ( 27 ) PROP( )
END
