HEADER
"PSFversion" "1.00"
"Log Generator" "drlLog rev. 1.0"
"Log Time Stamp" "Fri Nov 14 12:22:39 2025"
"psfversion" "1.4.0"
"simulator" "spectre"
"version" "24.1.0.288.isr5"
"date" "12:22:39 PM, Fri Nov 14, 2025"
"design" "// Generated for: spectre"
"signalNameType" "spectre"
"simMode" "APS"
"measdgt" 0
"ingold" 2
"sst2usecolon" 0
TYPE
"analysisInst" STRUCT(
"analysisType" STRING *
"dataFile" STRING *
"format" STRING *
"parent" STRING *
"sweepVariable" ARRAY ( * ) STRING *
"description" STRING *
)
VALUE
"dcOp-dc" "analysisInst" (
"dc"
"dcOp.dc"
"PSF"
""
()
"DC Analysis `dcOp'"
) PROP(
"data_type" "scalar"
)

"dcOpInfo-info" "analysisInst" (
"info"
"dcOpInfo.info"
"PSF"
""
()
"Circuit Information"
) PROP(
"data_type" "struct"
)

"ac-ac" "analysisInst" (
"ac"
"ac.ac"
"PSF"
""
("freq")
"AC Analysis `ac': freq = (10 mHz -> 100 GHz)"
) PROP(
"data_type" "swept_scalar"
)

"pz-pz" "analysisInst" (
"pz"
"pz.pz"
"PSF"
""
()
"PZ Analysis `pz'"
) PROP(
"data_type" "struct"
)

"tran-tran" "analysisInst" (
"tran"
"tran.tran.tran"
"PSF"
""
("time")
"Transient Analysis `tran': time = (0 s -> 100 us)"
) PROP(
"data_type" "swept_scalar"
)

"finalTimeOP-info" "analysisInst" (
"info"
"finalTimeOP.info"
"PSF"
""
()
"Circuit Information"
) PROP(
"data_type" "struct"
)

"stb-stb" "analysisInst" (
"stb"
"stb.stb"
"PSF"
""
("freq")
"Stability Analysis `stb': freq = (10 mHz -> 100 GHz)"
) PROP(
"data_type" "swept_scalar"
)

"stb-margin.stb" "analysisInst" (
"margin.stb"
"stb.margin.stb"
"PSF"
""
()
"Stability Analysis `stb': freq = (10 mHz -> 100 GHz)"
) PROP(
"data_type" "scalar"
)

"modelParameter-info" "analysisInst" (
"info"
"modelParameter.info"
"PSF"
""
()
"Circuit Information"
) PROP(
"data_type" "struct"
)

"element-info" "analysisInst" (
"info"
"element.info"
"PSF"
""
()
"Circuit Information"
) PROP(
"data_type" "struct"
)

"outputParameter-info" "analysisInst" (
"info"
"outputParameter.info"
"PSF"
""
()
"Circuit Information"
) PROP(
"data_type" "struct"
)

"designParamVals-info" "analysisInst" (
"info"
"designParamVals.info"
"PSF"
""
()
"Circuit Information"
) PROP(
"data_type" "struct"
)

"primitives-info.primitives" "analysisInst" (
"info.primitives"
"primitives.info.primitives"
"PSF"
""
()
"Circuit Information"
)
"subckts-info.subckts" "analysisInst" (
"info.subckts"
"subckts.info.subckts"
"PSF"
""
()
"Circuit Information"
)
END
