HEADER
"PSFversion" "1.00"
"design" "(\"DAY7\" \"ex1\" \"schematic\" \"\")"
"simulator" "spectre"
"temperature" "27"
"host" ""
"date" "Nov 14 12:22:36 2025"
"title" ""
"analysisList" "()"
END
