HEADER
"PSFversion" "1.00"
"Time Stamp" "Nov 14 12:22:36 2025"
TYPE
"variable" STRUCT(
"value" FLOAT DOUBLE
) PROP( "key" "element" )
VALUE
"temp" "variable" ( 27 ) PROP( )
END
