HEADER
"PSFversion" "1.00"
"design" "(\"LAB4\" \"Shunt_bias3\" \"schematic\" \"\")"
"simulator" "spectre"
"temperature" "27"
"host" ""
"date" "Nov 21 06:29:30 2025"
"title" ""
"analysisList" "()"
END
