HEADER
"PSFversion" "1.00"
"Time Stamp" "Nov 21 06:29:30 2025"
TYPE
"variable" STRUCT(
"value" FLOAT DOUBLE
) PROP( "key" "element" )
VALUE
"IS" "variable" ( 1 ) PROP( )
"temp" "variable" ( 27 ) PROP( )
END
