HEADER
"PSFversion" "1.00"
"design" "(\"\" \"netlist\" \"schematic\" \"\")"
"simulator" "spectre"
"temperature" "27"
"host" ""
"date" "Nov  8 02:52:31 2025"
"title" ""
"analysisList" "()"
END
