HEADER
"PSFversion" "1.00"
"design" "(\"LAB4\" \"Shunt_bias6\" \"schematic\" \"\")"
"simulator" "spectre"
"temperature" "27"
"host" ""
"date" "Nov 21 09:22:54 2025"
"title" ""
"analysisList" "()"
END
