HEADER
"PSFversion" "1.00"
"design" "(\"DAY5\" \"EXAMPLE\" \"schematic\" \"\")"
"simulator" "spectre"
"temperature" "27"
"host" ""
"date" "Nov 11 14:05:47 2025"
"title" ""
"analysisList" "()"
END
