HEADER
"PSFversion" "1.00"
"Time Stamp" "Nov 11 14:05:47 2025"
TYPE
"variable" STRUCT(
"value" FLOAT DOUBLE
) PROP( "key" "element" )
VALUE
"WF" "variable" ( 10e-6 ) PROP( )
"VGS" "variable" ( 372.3e-3 ) PROP( )
"VDS" "variable" ( 900e-3 ) PROP( )
"NF" "variable" ( 8 ) PROP( )
"L" "variable" ( 1e-6 ) PROP( )
"IDS" "variable" ( 10e-6 ) PROP( )
"temp" "variable" ( 27 ) PROP( )
END
