HEADER
"PSFversion" "1.00"
"design" "(\"LAB2\" \"transimpedance\" \"schematic\" \"\")"
"simulator" "spectre"
"temperature" "27"
"host" ""
"date" "Nov 12 11:19:07 2025"
"title" ""
"analysisList" "()"
END
