HEADER
"PSFversion" "1.00"
"Time Stamp" "Nov 12 11:19:07 2025"
TYPE
"variable" STRUCT(
"value" FLOAT DOUBLE
) PROP( "key" "element" )
VALUE
"WF" "variable" ( 8e-6 ) PROP( )
"VGS" "variable" ( 414.2e-3 ) PROP( )
"VDS" "variable" ( 900e-3 ) PROP( )
"NF" "variable" ( 40 ) PROP( )
"L" "variable" ( 1e-6 ) PROP( )
"IDS" "variable" ( 100e-6 ) PROP( )
"temperature" "variable" ( 27 ) PROP( )
"temp" "variable" ( 27 ) PROP( )
END
