HEADER
"PSFversion" "1.00"
"V1n" "analogLib_vdc_spectre"
"I0n" "analogLib_idc_spectre"
"M0n" "PRIMLIB_nel_spectre"
"E0n" "analogLib_vcvs_spectre"
