HEADER
"PSFversion" "1.00"
"Gv" ":1v"
"NWv" ":2v"
"SBv" ":3v"
"(op ?)p" "cap id ids isub vgs vbs vds vth vdsat gm ron"
"(op cap)p" "OP( mappedRoot(\".m1\") \"cap\")"
"(op id)p" "OP( mappedRoot(\".m1\") \"id\")"
"(op ids)p" "OP( mappedRoot(\".m1\") \"ids\")"
"(op isub)p" "OP( mappedRoot(\".m1\") \"isub\")"
"(op vgs)p" "OP( mappedRoot(\".m1\") \"vgs\")"
"(op vbs)p" "OP( mappedRoot(\".m1\") \"vbs\")"
"(op vds)p" "OP( mappedRoot(\".m1\") \"vds\")"
"(op vth)p" "OP( mappedRoot(\".m1\") \"vth\")"
"(op vdsat)p" "OP( mappedRoot(\".m1\") \"vdsat\")"
"(op gm)p" "OP( mappedRoot(\".m1\") \"gm\")"
"(op ron)p" "OP( mappedRoot(\".m1\") \"ron\")"
"(mp ?)p" "vtho cj tox cjsw"
"(mp vtho)p" "MP( mappedRoot(\".m1\") \"vtho\")"
"(mp cj)p" "MP( mappedRoot(\".m1\") \"cj\")"
"(mp tox)p" "MP( mappedRoot(\".m1\") \"tox\")"
"(mp cjsw)p" "MP( mappedRoot(\".m1\") \"cjsw\")"
"(opt ?)p" "cap id ids isub vgs vbs vds vth vdsat gm ron"
"(opt cap)p" "OPT( mappedRoot(\".m1\") \"cap\")"
"(opt id)p" "OPT( mappedRoot(\".m1\") \"id\")"
"(opt ids)p" "OPT( mappedRoot(\".m1\") \"ids\")"
"(opt isub)p" "OPT( mappedRoot(\".m1\") \"isub\")"
"(opt vgs)p" "OPT( mappedRoot(\".m1\") \"vgs\")"
"(opt vbs)p" "OPT( mappedRoot(\".m1\") \"vbs\")"
"(opt vds)p" "OPT( mappedRoot(\".m1\") \"vds\")"
"(opt vth)p" "OPT( mappedRoot(\".m1\") \"vth\")"
"(opt vdsat)p" "OPT( mappedRoot(\".m1\") \"vdsat\")"
"(opt gm)p" "OPT( mappedRoot(\".m1\") \"gm\")"
"(opt ron)p" "OPT( mappedRoot(\".m1\") \"ron\")"
