HEADER
"PSFversion" "1.00"
"__NEXT_FILE__" "trans_2st_bias6"
