HEADER
"PSFversion" "1.00"
"M4n M3n M2n M9n M1n M12n M11n M0n" "PRIMLIB_nel_spectre"
"R1n R2n R0n" "analogLib_res_spectre"
"C17n C0n C1n" "analogLib_cap_spectre"
"V6n" "analogLib_vdc_spectre"
"I3n" "analogLib_idc_spectre"
"I1n" "analogLib_isin_spectre"
"C3n C2n" "PRIMLIB_mosvc_spectre"
"M6n M5n M7n M8n M10n" "PRIMLIB_pel_spectre"
