HEADER
"PSFversion" "1.00"
"Time Stamp" "Nov 17 13:30:26 2025"
TYPE
"variable" STRUCT(
"value" FLOAT DOUBLE
) PROP( "key" "element" )
VALUE
"VPULSE" "variable" ( 0 ) PROP( )
"VIN" "variable" ( 10e-3 ) PROP( )
"FREQ" "variable" ( 1e3 ) PROP( )
"temp" "variable" ( 27 ) PROP( )
END
