HEADER
"PSFversion" "1.00"
"Time Stamp" "Nov 12 10:48:25 2025"
TYPE
"variable" STRUCT(
"value" FLOAT DOUBLE
) PROP( "key" "element" )
VALUE
"IDS" "variable" ( 63.09573445e-6 ) PROP( )
"L" "variable" ( 180e-9 ) PROP( )
"NF" "variable" ( 4 ) PROP( )
"VDS" "variable" ( 500e-3 ) PROP( )
"WF" "variable" ( 8e-6 ) PROP( )
"temperature" "variable" ( 27 ) PROP( )
"temp" "variable" ( 27 ) PROP( )
END
