HEADER
"PSFversion" "1.00"
"design" "(\"DAY7\" \"ex1_small_signal_no_bias\" \"schematic\" \"\")"
"simulator" "spectre"
"temperature" "27"
"host" ""
"date" "Nov 12 21:48:36 2025"
"title" ""
"analysisList" "()"
END
