HEADER
"PSFversion" "1.00"
"design" "(\"DAY6\" \"ex3\" \"schematic\" \"\")"
"simulator" "spectre"
"temperature" "27"
"host" ""
"date" "Nov 17 11:24:58 2025"
"title" ""
"analysisList" "()"
END
