HEADER
"PSFversion" "1.00"
"R2n R0n" "analogLib_res_spectre"
"C2n C1n C0n" "analogLib_cap_spectre"
"I5n I4n" "analogLib_isin_spectre"
"I10n I8n I0n" "MOS_AC"
