HEADER
"PSFversion" "1.00"
"M14n M12n M11n M10n M9n M7n M6n M5n M4n M2n M0n" "PRIMLIB_nel_spectre"
"M13n M8n M1n M3n" "PRIMLIB_pel_spectre"
"V1n" "analogLib_vdc_spectre"
"I24n" "analogLib_idc_spectre"
"C4n C2n C1n C0n" "analogLib_cap_spectre"
"R2n R0n" "analogLib_res_spectre"
"I7n" "analogLib_isin_spectre"
"C6n C5n C3n" "PRIMLIB_mosvc_spectre"
