HEADER
"PSFversion" "1.00"
"design" "(\"LAB4\" \"Shunt_bias2\" \"schematic\" \"\")"
"simulator" "spectre"
"temperature" "27"
"host" ""
"date" "Nov 21 06:20:43 2025"
"title" ""
"analysisList" "()"
END
