HEADER
"PSFversion" "1.00"
"design" "(\"LAB1\" \"GM_ID\" \"schematic\" \"\")"
"simulator" "spectre"
"temperature" "27"
"host" ""
"date" "Nov  9 16:59:50 2025"
"title" ""
"analysisList" "()"
END
