HEADER
"PSFversion" "1.00"
"design" "(\"DAY5\" \"NOISE_NMOS\" \"schematic\" \"\")"
"simulator" "spectre"
"temperature" "27"
"host" ""
"date" "Nov 12 10:07:08 2025"
"title" ""
"analysisList" "()"
END
