HEADER
"PSFversion" "1.00"
"design" "(\"LAB1\" \"SELF_CMOS\" \"schematic\" \"\")"
"simulator" "spectre"
"temperature" "27"
"host" ""
"date" "Nov  8 02:48:41 2025"
"title" ""
"analysisList" "()"
END
