HEADER
"PSFversion" "1.00"
"Time Stamp" "Nov  9 16:54:54 2025"
TYPE
"variable" STRUCT(
"value" FLOAT DOUBLE
) PROP( "key" "element" )
VALUE
"NFP" "variable" ( 10 ) PROP( )
"LP" "variable" ( 250e-9 ) PROP( )
"WFP" "variable" ( 10e-6 ) PROP( )
"NF" "variable" ( 10 ) PROP( )
"L" "variable" ( 1e-6 ) PROP( )
"WF" "variable" ( 8e-6 ) PROP( )
"IDS" "variable" ( 10e-6 ) PROP( )
"IDSP" "variable" ( 20e-6 ) PROP( )
"VDS" "variable" ( 900e-3 ) PROP( )
"VDSP" "variable" ( 600e-3 ) PROP( )
"temp" "variable" ( 27 ) PROP( )
END
