HEADER
"PSFversion" "1.00"
"design" "(\"LAB1\" \"SELF_CMOS\" \"schematic\" \"\")"
"simulator" "spectre"
"temperature" "27"
"host" ""
"date" "Nov 12 11:12:21 2025"
"title" ""
"analysisList" "()"
END
