HEADER
"PSFversion" "1.00"
"M2n M0n" "PRIMLIB_nel_spectre"
"M3n" "PRIMLIB_pel_spectre"
"V2n V1n" "analogLib_vdc_spectre"
"I17n I10n I20n" "analogLib_idc_spectre"
"C4n C2n C1n C0n" "analogLib_cap_spectre"
"R2n R0n" "analogLib_res_spectre"
"I7n" "analogLib_isin_spectre"
