HEADER
"PSFversion" "1.00"
"Time Stamp" "Nov 17 13:45:44 2025"
TYPE
"variable" STRUCT(
"value" FLOAT DOUBLE
) PROP( "key" "element" )
VALUE
"VPULSE" "variable" ( -500e-3 ) PROP( )
"VIN" "variable" ( 0 ) PROP( )
"FREQ" "variable" ( 700e3 ) PROP( )
"temperature" "variable" ( 27 ) PROP( )
"temp" "variable" ( 27 ) PROP( )
END
