HEADER
"PSFversion" "1.00"
"design" "(\"LAB2\" \"transconductance\" \"schematic\" \"\")"
"simulator" "spectre"
"temperature" "27"
"host" ""
"date" "Nov  9 15:51:50 2025"
"title" ""
"analysisList" "()"
END
