HEADER
"PSFversion" "1.00"
"design" "(\"LAB4\" \"Shunt_bias8\" \"schematic\" \"\")"
"simulator" "spectre"
"temperature" "27"
"host" ""
"date" "Nov 21 12:25:13 2025"
"title" ""
"analysisList" "()"
END
