HEADER
"PSFversion" "1.00"
"design" "(\"LAB1\" \"GM_ID\" \"schematic\" \"\")"
"simulator" "spectre"
"temperature" "27"
"host" ""
"date" "Nov 12 10:38:08 2025"
"title" ""
"analysisList" "()"
END
