HEADER
"PSFversion" "1.00"
"Time Stamp" "Nov 12 10:44:46 2025"
TYPE
"variable" STRUCT(
"value" FLOAT DOUBLE
) PROP( "key" "element" )
VALUE
"WF" "variable" ( 8e-6 ) PROP( )
"VGS" "variable" ( 299.48e-3 ) PROP( )
"VDS" "variable" ( 500e-3 ) PROP( )
"NF" "variable" ( 4 ) PROP( )
"L" "variable" ( 180e-9 ) PROP( )
"IDS" "variable" ( 10e-6 ) PROP( )
"temp" "variable" ( 27 ) PROP( )
END
