HEADER
"PSFversion" "1.00"
"design" "(\"LAB2\" \"NOISE_NMOS\" \"schematic\" \"\")"
"simulator" "spectre"
"temperature" "27"
"host" ""
"date" "Nov 12 13:25:26 2025"
"title" ""
"analysisList" "()"
END
