HEADER
"PSFversion" "1.00"
"Time Stamp" "Nov 17 11:04:30 2025"
TYPE
"variable" STRUCT(
"value" FLOAT DOUBLE
) PROP( "key" "element" )
VALUE
"VIN2" "variable" ( 0 ) PROP( )
"VIN" "variable" ( 0 ) PROP( )
"temp" "variable" ( 27 ) PROP( )
END
