HEADER
"PSFversion" "1.00"
"design" "(\"DAY6\" \"ex2\" \"schematic\" \"\")"
"simulator" "spectre"
"temperature" "27"
"host" ""
"date" "Nov 17 11:03:02 2025"
"title" ""
"analysisList" "()"
END
