HEADER
"PSFversion" "1.00"
"design" "(\"LAB3\" \"Shunt\" \"schematic\" \"\")"
"simulator" "spectre"
"temperature" "27"
"host" ""
"date" "Nov 13 09:56:32 2025"
"title" ""
"analysisList" "()"
END
