HEADER
"PSFversion" "1.00"
"Time Stamp" "Nov  8 02:45:32 2025"
TYPE
"variable" STRUCT(
"value" FLOAT DOUBLE
) PROP( "key" "element" )
VALUE
"VDSP" "variable" ( 800e-3 ) PROP( )
"IDSP" "variable" ( 10e-6 ) PROP( )
"WFP" "variable" ( 4e-6 ) PROP( )
"LP" "variable" ( 2e-6 ) PROP( )
"NFP" "variable" ( 2 ) PROP( )
"IDS" "variable" ( 10e-6 ) PROP( )
"L" "variable" ( 180e-9 ) PROP( )
"NF" "variable" ( 1 ) PROP( )
"VDS" "variable" ( 900e-3 ) PROP( )
"WF" "variable" ( 8e-6 ) PROP( )
"temp" "variable" ( 27 ) PROP( )
END
