HEADER
"PSFversion" "1.00"
"__NEXT_FILE__" "ex1_small_signal_no_bias"
