HEADER
"PSFversion" "1.00"
"__NEXT_FILE__" "trans_dc_bias4"
