HEADER
"PSFversion" "1.00"
"M14n M13n M7n M3n M4n M0n" "PRIMLIB_nel_spectre"
"R2n R1n R0n" "analogLib_res_spectre"
"C5n C0n C6n C3n" "analogLib_cap_spectre"
"V4n V3n" "analogLib_vdc_spectre"
"I3n" "analogLib_idc_spectre"
"I1n" "analogLib_isin_spectre"
"M8n M9n M6n M5n M2n M1n" "PRIMLIB_pel_spectre"
"C7n C8n C2n" "PRIMLIB_mosvc_spectre"
"V0n" "analogLib_vpulse_spectre"
