HEADER
"PSFversion" "1.00"
"__NEXT_FILE__" "trans_bias4_corrected"
