HEADER
"PSFversion" "1.00"
"M3n M4n M0n" "PRIMLIB_nel_spectre"
"R1n R0n" "analogLib_res_spectre"
"C0n C1n C3n" "analogLib_cap_spectre"
"V3n" "analogLib_vdc_spectre"
"I3n" "analogLib_idc_spectre"
"I1n" "analogLib_isin_spectre"
"M2n M1n" "PRIMLIB_pel_spectre"
"C5n C4n C2n" "PRIMLIB_mosvc_spectre"
