HEADER
"PSFversion" "1.00"
"design" "(\"DAY7\" \"ex1_small_signal_no_bias_pole_zero_cancel\" \"schematic\" \"\")"
"simulator" "spectre"
"temperature" "27"
"host" ""
"date" "Nov 14 14:41:35 2025"
"title" ""
"analysisList" "()"
END
