HEADER
"PSFversion" "1.00"
"design" "(\"DAY6\" \"ex3\" \"schematic\" \"\")"
"simulator" "spectre"
"temperature" "27"
"host" ""
"date" "Nov 17 13:23:30 2025"
"title" ""
"analysisList" "()"
END
