HEADER
"PSFversion" "1.00"
"Time Stamp" "Nov 12 11:03:35 2025"
TYPE
"variable" STRUCT(
"value" FLOAT DOUBLE
) PROP( "key" "element" )
VALUE
"IDS" "variable" ( 251.1886432e-6 ) PROP( )
"L" "variable" ( 1e-6 ) PROP( )
"NF" "variable" ( 10 ) PROP( )
"VDS" "variable" ( 900e-3 ) PROP( )
"WF" "variable" ( 8e-6 ) PROP( )
"temperature" "variable" ( 27 ) PROP( )
"temp" "variable" ( 27 ) PROP( )
END
