HEADER
"PSFversion" "1.00"
"M1n" "PRIMLIB_nel_spectre"
"I5n" "analogLib_idc_spectre"
"V1n V0n" "analogLib_vdc_spectre"
"IPRB0n" "analogLib_iprobe_spectre"
"L0n" "analogLib_ind_spectre"
"R0n" "analogLib_res_spectre"
"V2n" "analogLib_vsin_spectre"
