HEADER
"PSFversion" "1.00"
"design" "(\"DAY7\" \"ex1_small_signal\" \"schematic\" \"\")"
"simulator" "spectre"
"temperature" "27"
"host" ""
"date" "May  3 21:58:32 2025"
"title" ""
"analysisList" "()"
END
