HEADER
"PSFversion" "1.00"
"design" "(\"DAY8\" \"trans_2st_bias6\" \"schematic\" \"\")"
"simulator" "spectre"
"temperature" "27"
"host" ""
"date" "Nov 17 10:27:03 2025"
"title" ""
"analysisList" "()"
END
