HEADER
"PSFversion" "1.00"
"Time Stamp" "Nov 17 10:27:03 2025"
TYPE
"variable" STRUCT(
"value" FLOAT DOUBLE
) PROP( "key" "element" )
VALUE
"IN" "variable" ( 0 ) PROP( )
"temp" "variable" ( 27 ) PROP( )
END
